[ System ]
   1    2    3    4    5    6    7    8    9   10   11   12   13   14   15
  16   17   18   19   20   21   22   23   24   25   26   27   28   29   30
  31   32   33   34   35   36   37   38   39   40   41   42   43   44   45
  46   47   48   49   50   51   52   53   54   55   56   57   58   59   60
  61   62   63   64   65   66   67   68   69   70   71   72   73   74   75
  76   77   78   79   80   81   82   83   84   85   86   87   88   89   90
  91   92   93   94   95   96   97   98   99  100  101  102  103  104  105
 106  107  108  109  110  111  112  113  114  115  116  117  118  119  120
 121  122  123  124  125  126  127  128  129  130  131  132  133  134  135
 136  137  138  139  140  141  142  143  144  145  146  147  148  149  150
 151  152  153  154  155  156  157  158  159  160  161  162  163  164  165
 166  167  168  169  170  171  172  173  174  175  176  177  178  179  180
 181  182  183  184  185  186  187  188  189  190  191  192  193  194  195
 196  197  198  199  200  201  202  203  204  205  206  207  208  209  210
 211  212  213  214  215  216  217  218  219  220  221  222  223  224  225
 226  227  228  229  230  231  232  233  234  235  236  237  238  239  240
 241  242  243  244  245  246  247  248  249  250  251  252  253  254  255
 256  257  258  259  260  261  262  263  264  265  266  267  268  269  270
 271  272  273  274  275  276  277  278  279  280  281  282  283  284  285
 286  287  288  289  290  291  292  293  294  295  296  297  298  299  300
 301  302  303  304  305  306  307  308  309  310  311  312  313  314  315
 316  317  318  319  320  321  322  323  324  325  326  327  328  329  330
 331  332  333  334  335  336  337  338  339  340  341  342  343  344  345
 346  347  348  349  350  351  352  353  354  355  356  357  358  359  360
 361  362  363  364  365  366  367  368  369  370  371  372  373  374  375
 376  377  378  379  380  381  382  383  384  385  386  387  388  389  390
 391  392  393  394  395  396  397  398  399  400  401  402  403  404  405
 406  407  408  409  410  411  412  413  414  415  416  417  418  419  420
 421  422  423  424  425  426  427  428  429  430  431  432  433  434  435
 436  437  438  439  440  441  442  443  444  445  446  447  448  449  450
 451  452  453  454  455  456  457  458  459  460  461  462  463  464  465
 466  467  468  469  470  471  472  473  474  475  476  477  478  479  480
 481  482  483  484  485  486  487  488  489  490  491  492  493  494  495
 496  497  498  499  500  501  502  503  504  505  506  507  508  509  510
 511  512  513  514  515  516  517  518  519  520  521  522  523  524  525
 526  527  528  529  530  531  532  533  534  535  536  537  538  539  540
 541  542  543  544  545  546  547  548  549  550  551  552  553  554  555
 556  557  558  559  560  561  562  563  564  565  566  567  568  569  570
 571  572  573  574  575  576  577  578  579  580  581  582  583  584  585
 586  587  588  589  590  591  592  593  594  595  596  597  598  599  600
 601  602  603  604  605  606  607  608  609  610  611  612  613  614  615
 616  617  618  619  620  621  622  623  624  625  626  627  628  629  630
 631  632  633  634  635  636  637  638  639  640  641  642  643  644  645
 646  647  648  649  650  651  652  653  654  655  656  657  658  659  660
 661  662  663  664  665  666  667  668  669  670  671  672  673  674  675
 676  677  678  679  680  681  682  683  684  685  686  687  688  689  690
 691  692  693  694  695  696  697  698  699  700  701  702  703  704  705
 706  707  708  709  710  711  712  713  714  715  716  717  718  719  720
 721  722  723  724  725  726  727  728  729  730  731  732  733  734  735
 736  737  738  739  740  741  742  743  744  745  746  747  748  749  750
 751  752  753  754  755  756  757  758  759  760  761  762  763  764  765
 766  767  768  769  770  771  772  773  774  775  776  777  778  779  780
 781  782  783  784  785  786  787  788  789  790  791  792  793  794  795
 796  797  798  799  800  801  802  803  804  805  806  807  808  809  810
 811  812  813  814  815  816  817  818  819  820  821  822  823  824  825
 826  827  828  829  830  831  832  833  834  835  836  837  838  839  840
 841  842  843  844  845  846  847  848  849  850  851  852  853  854  855
 856  857  858  859  860  861  862
[ Protein ]
   1    2    3    4    5    6    7    8    9   10   11   12   13   14   15
  16   17   18   19   20   21   22   23   24   25   26   27   28   29   30
  31   32   33   34   35   36   37   38   39   40   41   42   43   44   45
  46   47   48   49   50   51   52   53   54   55   56   57   58   59   60
  61   62   63   64   65   66   67   68   69   70   71   72   73   74   75
  76   77   78   79   80   81   82   83   84   85   86   87   88   89   90
  91   92   93   94   95   96   97   98   99  100  101  102  103  104  105
 106  107  108  109  110  111  112  113  114  115  116  117  118  119  120
 121  122  123  124  125  126  127  128  129  130  131  132  133  134  135
 136  137  138  139  140  141  142  143  144  145  146  147  148  149  150
 151  152  153  154  155  156  157  158  159  160  161  162  163  164  165
 166  167  168  169  170  171  172  173  174  175  176  177  178  179  180
 181  182  183  184  185  186  187  188  189  190  191  192  193  194  195
 196  197  198  199  200  201  202  203  204  205  206  207  208  209  210
 211  212  213  214  215  216  217  218  219  220  221  222  223  224  225
 226  227  228  229  230  231  232  233  234  235  236  237  238  239  240
 241  242  243  244  245  246  247  248  249  250  251  252  253  254  255
 256  257  258  259  260  261  262  263  264  265  266  267  268  269  270
 271  272  273  274  275  276  277  278  279  280  281  282  283  284  285
 286  287  288  289  290  291  292  293  294  295  296  297  298  299  300
 301  302  303  304  305  306  307  308  309  310  311  312  313  314  315
 316  317  318  319  320  321  322  323  324  325  326  327  328  329  330
 331  332  333  334  335  336  337  338  339  340  341  342  343  344  345
 346  347  348  349  350  351  352  353  354  355  356  357  358  359  360
 361  362  363  364  365  366  367  368  369  370  371  372  373  374  375
 376  377  378  379  380  381  382  383  384  385  386  387  388  389  390
 391  392  393  394  395  396  397  398  399  400  401  402  403  404  405
 406  407  408  409  410  411  412  413  414  415  416  417  418  419  420
 421  422  423  424  425  426  427  428  429  430  431  432  433  434  435
 436  437  438  439  440  441  442  443  444  445  446  447  448  449  450
 451  452  453  454  455  456  457  458  459  460  461  462  463  464  465
 466  467  468  469  470  471  472  473  474  475  476  477  478  479  480
 481  482  483  484  485  486  487  488  489  490  491  492  493  494  495
 496  497  498  499  500  501  502  503  504  505  506  507  508  509  510
 511  512  513  514  515  516  517  518  519  520  521  522  523  524  525
 526  527  528  529  530  531  532  533  534  535  536  537  538  539  540
 541  542  543  544  545  546  547  548  549  550  551  552  553  554  555
 556  557  558  559  560  561  562  563  564  565  566  567  568  569  570
 571  572  573  574  575  576  577  578  579  580  581  582  583  584  585
 586  587  588  589  590  591  592  593  594  595  596  597  598  599  600
 601  602  603  604  605  606  607  608  609  610  611  612  613  614  615
 616  617  618  619  620  621  622  623  624  625  626  627  628  629  630
 631  632  633  634  635  636  637  638  639  640  641  642  643  644  645
 646  647  648  649  650  651  652  653  654  655  656  657  658  659  660
 661  662  663  664  665  666  667  668  669  670  671  672  673  674  675
 676  677  678  679  680  681  682  683  684  685  686  687  688  689  690
 691  692  693  694  695  696  697  698  699  700  701  702  703  704  705
 706  707  708  709  710  711  712  713  714  715  716  717  718  719  720
 721  722  723  724  725  726  727  728  729  730  731  732  733  734  735
 736  737  738  739  740  741  742  743  744  745  746  747  748  749  750
 751  752  753  754  755  756  757  758  759  760  761  762  763  764  765
 766  767  768  769  770  771  772  773  774  775  776  777  778  779  780
 781  782  783  784  785  786  787  788  789  790  791  792  793  794  795
 796  797  798  799  800  801  802  803  804  805  806  807  808  809  810
 811  812  813  814  815  816  817  818  819  820  821  822  823  824  825
 826  827  828  829  830  831  832  833  834  835  836  837  838  839  840
 841  842  843  844  845  846  847  848  849  850  851  852  853  854  855
 856  857  858  859  860  861  862
[ Protein-H ]
   1    5    7   10   13   14   18   19   20   22   24   27   30   31   32
  35   36   37   39   41   44   45   47   49   50   52   54   56   57   58
  60   62   65   68   71   74   78   79   80   82   84   87   89   93   97
  98   99  101  103  105  109  113  114  115  117  119  121  125  128  132
 133  134  136  138  141  142  143  146  147  148  150  153  154  155  157
 159  162  165  168  171  175  176  177  179  181  183  187  189  190  191
 193  195  198  200  204  208  209  210  212  214  217  220  223  226  230
 231  232  234  237  238  239  241  243  246  249  250  251  252  253  254
 256  258  260  264  266  267  268  270  272  274  278  280  281  282  284
 286  288  292  294  295  296  298  300  303  306  309  312  316  317  318
 320  322  326  327  328  330  332  334  338  342  343  344  346  348  351
 352  353  354  355  356  358  360  364  365  366  368  370  373  376  377
 378  379  380  381  383  385  387  391  393  394  395  397  399  403  404
 405  407  409  412  415  416  417  418  419  420  422  424  427  430  433
 436  440  441  442  444  446  450  451  452  454  456  459  460  462  464
 466  468  470  471  472  474  476  479  482  485  488  492  493  494  496
 498  501  504  505  506  509  510  511  513  515  518  519  521  523  524
 526  528  530  531  532  534  536  540  541  542  544  546  549  550  551
 554  555  556  558  560  563  564  565  566  567  568  570  572  575  576
 577  580  581  582  584  587  588  589  591  593  595  599  603  604  605
 607  609  612  613  614  615  616  617  619  622  623  624  626  628  630
 634  638  639  640  642  644  647  648  650  652  653  655  657  659  661
 662  663  664  666  668  670  674  676  677  678  680  682  685  686  688
 690  691  693  695  697  698  699  701  703  706  707  708  709  710  711
 713  715  718  719  720  721  722  723  725  727  731  732  733  735  737
 739  743  745  746  747  749  751  754  757  760  763  767  768  769  771
 773  775  779  781  782  783  785  787  790  791  793  795  797  799  801
 802  803  805  807  809  813  815  816  817  819  821  823  827  831  832
 833  835  837  839  843  845  846  847  849  851  854  857  858  859  860
 861  862
[ C-alpha ]
   5   22   39   60   82  101  117  136  150  157  179  193  212  234  241
 256  270  284  298  320  330  346  358  368  383  397  407  422  444  454
 474  496  513  534  544  558  570  584  591  607  619  626  642  666  680
 701  713  725  735  749  771  785  805  819  835  849
[ Backbone ]
   1    5   18   20   22   35   37   39   56   58   60   78   80   82   97
  99  101  113  115  117  132  134  136  146  148  150  153  155  157  175
 177  179  189  191  193  208  210  212  230  232  234  237  239  241  252
 254  256  266  268  270  280  282  284  294  296  298  316  318  320  326
 328  330  342  344  346  354  356  358  364  366  368  379  381  383  393
 395  397  403  405  407  418  420  422  440  442  444  450  452  454  470
 472  474  492  494  496  509  511  513  530  532  534  540  542  544  554
 556  558  566  568  570  580  582  584  587  589  591  603  605  607  615
 617  619  622  624  626  638  640  642  662  664  666  676  678  680  697
 699  701  709  711  713  721  723  725  731  733  735  745  747  749  767
 769  771  781  783  785  801  803  805  815  817  819  831  833  835  845
 847  849  860
[ MainChain ]
   1    5   18   19   20   22   35   36   37   39   56   57   58   60   78
  79   80   82   97   98   99  101  113  114  115  117  132  133  134  136
 146  147  148  150  153  154  155  157  175  176  177  179  189  190  191
 193  208  209  210  212  230  231  232  234  237  238  239  241  252  253
 254  256  266  267  268  270  280  281  282  284  294  295  296  298  316
 317  318  320  326  327  328  330  342  343  344  346  354  355  356  358
 364  365  366  368  379  380  381  383  393  394  395  397  403  404  405
 407  418  419  420  422  440  441  442  444  450  451  452  454  470  471
 472  474  492  493  494  496  509  510  511  513  530  531  532  534  540
 541  542  544  554  555  556  558  566  567  568  570  580  581  582  584
 587  588  589  591  603  604  605  607  615  616  617  619  622  623  624
 626  638  639  640  642  662  663  664  666  676  677  678  680  697  698
 699  701  709  710  711  713  721  722  723  725  731  732  733  735  745
 746  747  749  767  768  769  771  781  782  783  785  801  802  803  805
 815  816  817  819  831  832  833  835  845  846  847  849  860  861  862
[ MainChain+Cb ]
   1    5    7   18   19   20   22   24   35   36   37   39   41   56   57
  58   60   62   78   79   80   82   84   97   98   99  101  103  113  114
 115  117  119  132  133  134  136  138  146  147  148  150  153  154  155
 157  159  175  176  177  179  181  189  190  191  193  195  208  209  210
 212  214  230  231  232  234  237  238  239  241  243  252  253  254  256
 258  266  267  268  270  272  280  281  282  284  286  294  295  296  298
 300  316  317  318  320  322  326  327  328  330  332  342  343  344  346
 348  354  355  356  358  360  364  365  366  368  370  379  380  381  383
 385  393  394  395  397  399  403  404  405  407  409  418  419  420  422
 424  440  441  442  444  446  450  451  452  454  456  470  471  472  474
 476  492  493  494  496  498  509  510  511  513  515  530  531  532  534
 536  540  541  542  544  546  554  555  556  558  560  566  567  568  570
 572  580  581  582  584  587  588  589  591  593  603  604  605  607  609
 615  616  617  619  622  623  624  626  628  638  639  640  642  644  662
 663  664  666  668  676  677  678  680  682  697  698  699  701  703  709
 710  711  713  715  721  722  723  725  727  731  732  733  735  737  745
 746  747  749  751  767  768  769  771  773  781  782  783  785  787  801
 802  803  805  807  815  816  817  819  821  831  832  833  835  837  845
 846  847  849  851  860  861  862
[ MainChain+H ]
   1    2    3    4    5   18   19   20   21   22   35   36   37   38   39
  56   57   58   59   60   78   79   80   81   82   97   98   99  100  101
 113  114  115  116  117  132  133  134  135  136  146  147  148  149  150
 153  154  155  156  157  175  176  177  178  179  189  190  191  192  193
 208  209  210  211  212  230  231  232  233  234  237  238  239  240  241
 252  253  254  255  256  266  267  268  269  270  280  281  282  283  284
 294  295  296  297  298  316  317  318  319  320  326  327  328  329  330
 342  343  344  345  346  354  355  356  357  358  364  365  366  367  368
 379  380  381  382  383  393  394  395  396  397  403  404  405  406  407
 418  419  420  421  422  440  441  442  443  444  450  451  452  453  454
 470  471  472  473  474  492  493  494  495  496  509  510  511  512  513
 530  531  532  533  534  540  541  542  543  544  554  555  556  557  558
 566  567  568  569  570  580  581  582  583  584  587  588  589  590  591
 603  604  605  606  607  615  616  617  618  619  622  623  624  625  626
 638  639  640  641  642  662  663  664  665  666  676  677  678  679  680
 697  698  699  700  701  709  710  711  712  713  721  722  723  724  725
 731  732  733  734  735  745  746  747  748  749  767  768  769  770  771
 781  782  783  784  785  801  802  803  804  805  815  816  817  818  819
 831  832  833  834  835  845  846  847  848  849  860  861  862
[ SideChain ]
   6    7    8    9   10   11   12   13   14   15   16   17   23   24   25
  26   27   28   29   30   31   32   33   34   40   41   42   43   44   45
  46   47   48   49   50   51   52   53   54   55   61   62   63   64   65
  66   67   68   69   70   71   72   73   74   75   76   77   83   84   85
  86   87   88   89   90   91   92   93   94   95   96  102  103  104  105
 106  107  108  109  110  111  112  118  119  120  121  122  123  124  125
 126  127  128  129  130  131  137  138  139  140  141  142  143  144  145
 151  152  158  159  160  161  162  163  164  165  166  167  168  169  170
 171  172  173  174  180  181  182  183  184  185  186  187  188  194  195
 196  197  198  199  200  201  202  203  204  205  206  207  213  214  215
 216  217  218  219  220  221  222  223  224  225  226  227  228  229  235
 236  242  243  244  245  246  247  248  249  250  251  257  258  259  260
 261  262  263  264  265  271  272  273  274  275  276  277  278  279  285
 286  287  288  289  290  291  292  293  299  300  301  302  303  304  305
 306  307  308  309  310  311  312  313  314  315  321  322  323  324  325
 331  332  333  334  335  336  337  338  339  340  341  347  348  349  350
 351  352  353  359  360  361  362  363  369  370  371  372  373  374  375
 376  377  378  384  385  386  387  388  389  390  391  392  398  399  400
 401  402  408  409  410  411  412  413  414  415  416  417  423  424  425
 426  427  428  429  430  431  432  433  434  435  436  437  438  439  445
 446  447  448  449  455  456  457  458  459  460  461  462  463  464  465
 466  467  468  469  475  476  477  478  479  480  481  482  483  484  485
 486  487  488  489  490  491  497  498  499  500  501  502  503  504  505
 506  507  508  514  515  516  517  518  519  520  521  522  523  524  525
 526  527  528  529  535  536  537  538  539  545  546  547  548  549  550
 551  552  553  559  560  561  562  563  564  565  571  572  573  574  575
 576  577  578  579  585  586  592  593  594  595  596  597  598  599  600
 601  602  608  609  610  611  612  613  614  620  621  627  628  629  630
 631  632  633  634  635  636  637  643  644  645  646  647  648  649  650
 651  652  653  654  655  656  657  658  659  660  661  667  668  669  670
 671  672  673  674  675  681  682  683  684  685  686  687  688  689  690
 691  692  693  694  695  696  702  703  704  705  706  707  708  714  715
 716  717  718  719  720  726  727  728  729  730  736  737  738  739  740
 741  742  743  744  750  751  752  753  754  755  756  757  758  759  760
 761  762  763  764  765  766  772  773  774  775  776  777  778  779  780
 786  787  788  789  790  791  792  793  794  795  796  797  798  799  800
 806  807  808  809  810  811  812  813  814  820  821  822  823  824  825
 826  827  828  829  830  836  837  838  839  840  841  842  843  844  850
 851  852  853  854  855  856  857  858  859
[ SideChain-H ]
   7   10   13   14   24   27   30   31   32   41   44   45   47   49   50
  52   54   62   65   68   71   74   84   87   89   93  103  105  109  119
 121  125  128  138  141  142  143  159  162  165  168  171  181  183  187
 195  198  200  204  214  217  220  223  226  243  246  249  250  251  258
 260  264  272  274  278  286  288  292  300  303  306  309  312  322  332
 334  338  348  351  352  353  360  370  373  376  377  378  385  387  391
 399  409  412  415  416  417  424  427  430  433  436  446  456  459  460
 462  464  466  468  476  479  482  485  488  498  501  504  505  506  515
 518  519  521  523  524  526  528  536  546  549  550  551  560  563  564
 565  572  575  576  577  593  595  599  609  612  613  614  628  630  634
 644  647  648  650  652  653  655  657  659  661  668  670  674  682  685
 686  688  690  691  693  695  703  706  707  708  715  718  719  720  727
 737  739  743  751  754  757  760  763  773  775  779  787  790  791  793
 795  797  799  807  809  813  821  823  827  837  839  843  851  854  857
 858  859
[ guideC-alpha ]
  39   60   82  101  117  234  241  256  270  284  358  368  383  397  407
 422  444  454  474  496  513  534  544  558  626  642  666  680  701  771
 785  805  819
